# automatically generated by g-sorcery
# please do not edit this file

EAPI=8

REALNAME="${PN}"
REALVERSION="${PV}"
DIGEST_SOURCES="yes"
PYTHON_COMPAT=( python{3_10,3_11,3_12} )
DISTUTILS_USE_PEP517=standalone

inherit python-r1 gs-pypi

DESCRIPTION="Orbital viewer for OpenMolcas"

HOMEPAGE="https://gitlab.com/Jellby/Pegamoid"
LICENSE="GPL v3.0"
SRC_URI="https://files.pythonhosted.org/packages/26/f1/de7835af99087cea69b187d460667b9cb332cbd27ddb236bcf3689cd6d86/Pegamoid-${REALVERSION}.tar.gz"
SOURCEFILE="Pegamoid-${REALVERSION}.tar.gz"
RESTRICT="test"

SLOT="0"
KEYWORDS="~amd64 ~x86"

IUSE=""
DEPENDENCIES="dev-python/numpy[${PYTHON_USEDEP}]
	dev-python/h5py[${PYTHON_USEDEP}]
	dev-python/VTK[${PYTHON_USEDEP}]
	dev-python/qtpy[${PYTHON_USEDEP}]"
BDEPEND="${DEPENDENCIES}"
RDEPEND="${DEPENDENCIES}"
