# automatically generated by g-sorcery
# please do not edit this file

EAPI=8

REALNAME="${PN}"
LITERALNAME="Pegamoid"
REALVERSION="${PV}"
DIGEST_SOURCES="yes"
PYTHON_COMPAT=( python{3_10,3_11,3_12} )
DISTUTILS_USE_PEP517=standalone

inherit python-r1 gs-pypi

DESCRIPTION="Orbital viewer for OpenMolcas"

HOMEPAGE="https://gitlab.com/Jellby/Pegamoid"
LICENSE="GPL v3.0"
SRC_URI="https://files.pythonhosted.org/packages/source/${LITERALNAME::1}/${LITERALNAME}/${LITERALNAME}-${REALVERSION}.tar.gz"
SOURCEFILE="${LITERALNAME}-${REALVERSION}.tar.gz"
RESTRICT="test"

SLOT="0"
KEYWORDS="~amd64 ~x86"

IUSE=""
DEPENDENCIES=">=dev-python/numpy-1.9.0[${PYTHON_USEDEP}]
	dev-python/h5py[${PYTHON_USEDEP}]
	dev-python/VTK[${PYTHON_USEDEP}]
	dev-python/qtpy[${PYTHON_USEDEP}]"
BDEPEND="${DEPENDENCIES}"
RDEPEND="${DEPENDENCIES}"
